
     Program PWSCF v.6.6 starts on  2Dec2021 at 10:23:20 

     This program is part of the open-source Quantum ESPRESSO suite
     for quantum simulation of materials; please cite
         "P. Giannozzi et al., J. Phys.:Condens. Matter 21 395502 (2009);
         "P. Giannozzi et al., J. Phys.:Condens. Matter 29 465901 (2017);
          URL http://www.quantum-espresso.org", 
     in publications or presentations arising from this work. More details at
     http://www.quantum-espresso.org/quote

     Parallel version (MPI & OpenMP), running on       4 processor cores
     Number of MPI processes:                 4
     Threads/MPI process:                     1

     MPI processes distributed on     1 nodes
     R & G space division:  proc/nbgrp/npool/nimage =       4
     Fft bands division:     nmany     =       1
     Waiting for input...
     Reading input from standard input

     Current dimensions of program PWSCF are:
     Max number of different atomic species (ntypx) = 10
     Max number of k-points (npk) =  40000
     Max angular momentum in pseudopotentials (lmaxx) =  3
     file Ge.rel-pbe-dn-kjpaw_psl.0.2.2.UPF: wavefunction(s)  4P 4P 3D renormalized

     Subspace diagonalization in iterative solution of the eigenvalue problem:
     a serial algorithm will be used


     Parallelization info
     --------------------
     sticks:   dense  smooth     PW     G-vecs:    dense   smooth      PW
     Min         362     362    102                89065    89065   13182
     Max         364     364    103                89074    89074   13199
     Sum        1453    1453    409               356277   356277   52755



     bravais-lattice index     =            4
     lattice parameter (alat)  =       7.6430  a.u.
     unit-cell volume          =    3093.2299 (a.u.)^3
     number of atoms/cell      =            2
     number of atomic types    =            1
     number of electrons       =        28.00
     number of Kohn-Sham states=           32
     kinetic-energy cutoff     =      90.0000  Ry
     charge density cutoff     =     360.0000  Ry
     convergence threshold     =      1.0E-06
     mixing beta               =       0.7000
     number of iterations used =            8  plain     mixing
     Exchange-correlation= SLA PW PBX PBC
                           (   1   4   3   4   0   0   0)
     Non magnetic calculation with spin-orbit


     celldm(1)=   7.643000  celldm(2)=   0.000000  celldm(3)=   8.000000
     celldm(4)=   0.000000  celldm(5)=   0.000000  celldm(6)=   0.000000

     crystal axes: (cart. coord. in units of alat)
               a(1) = (   1.000000   0.000000   0.000000 )  
               a(2) = (  -0.500000   0.866025   0.000000 )  
               a(3) = (   0.000000   0.000000   8.000000 )  

     reciprocal axes: (cart. coord. in units 2 pi/alat)
               b(1) = (  1.000000  0.577350 -0.000000 )  
               b(2) = (  0.000000  1.154701  0.000000 )  
               b(3) = (  0.000000 -0.000000  0.125000 )  


     PseudoPot. # 1 for Ge read from file:
     ./Ge.rel-pbe-dn-kjpaw_psl.0.2.2.UPF
     MD5 check sum: e4cf76e03bec641590337357991ef0a3
     Pseudo is Projector augmented-wave + core cor, Zval = 14.0
     Generated using "atomic" code by A. Dal Corso v.5.0.2 svn rev. 9415
     Shape of augmentation charge: PSQ
     Using radial grid of 1207 points, 10 beta functions with: 
                l(1) =   0
                l(2) =   0
                l(3) =   1
                l(4) =   1
                l(5) =   1
                l(6) =   1
                l(7) =   2
                l(8) =   2
                l(9) =   2
               l(10) =   2
     Q(r) pseudized with 0 coefficients 


     atomic species   valence    mass     pseudopotential
        Ge            14.00    72.64000     Ge( 1.00)

     12 Sym. Ops., with inversion, found


                                    s                        frac. trans.

      isym =  1     identity                                     

 cryst.   s( 1) = (     1          0          0      )
                  (     0          1          0      )
                  (     0          0          1      )

 cart.    s( 1) = (  1.0000000  0.0000000  0.0000000 )
                  (  0.0000000  1.0000000  0.0000000 )
                  (  0.0000000  0.0000000  1.0000000 )


      isym =  2     180 deg rotation - cart. axis [1,0,0]        

 cryst.   s( 2) = (     1          0          0      )
                  (    -1         -1          0      )
                  (     0          0         -1      )

 cart.    s( 2) = (  1.0000000  0.0000000  0.0000000 )
                  (  0.0000000 -1.0000000  0.0000000 )
                  (  0.0000000  0.0000000 -1.0000000 )


      isym =  3     120 deg rotation - cryst. axis [0,0,1]       

 cryst.   s( 3) = (     0          1          0      )
                  (    -1         -1          0      )
                  (     0          0          1      )

 cart.    s( 3) = ( -0.5000000 -0.8660254  0.0000000 )
                  (  0.8660254 -0.5000000  0.0000000 )
                  (  0.0000000  0.0000000  1.0000000 )


      isym =  4     120 deg rotation - cryst. axis [0,0,-1]      

 cryst.   s( 4) = (    -1         -1          0      )
                  (     1          0          0      )
                  (     0          0          1      )

 cart.    s( 4) = ( -0.5000000  0.8660254  0.0000000 )
                  ( -0.8660254 -0.5000000  0.0000000 )
                  (  0.0000000  0.0000000  1.0000000 )


      isym =  5     180 deg rotation - cryst. axis [0,1,0]       

 cryst.   s( 5) = (    -1         -1          0      )
                  (     0          1          0      )
                  (     0          0         -1      )

 cart.    s( 5) = ( -0.5000000 -0.8660254  0.0000000 )
                  ( -0.8660254  0.5000000  0.0000000 )
                  (  0.0000000  0.0000000 -1.0000000 )


      isym =  6     180 deg rotation - cryst. axis [1,1,0]       

 cryst.   s( 6) = (     0          1          0      )
                  (     1          0          0      )
                  (     0          0         -1      )

 cart.    s( 6) = ( -0.5000000  0.8660254  0.0000000 )
                  (  0.8660254  0.5000000  0.0000000 )
                  (  0.0000000  0.0000000 -1.0000000 )


      isym =  7     inversion                                    

 cryst.   s( 7) = (    -1          0          0      )
                  (     0         -1          0      )
                  (     0          0         -1      )

 cart.    s( 7) = ( -1.0000000  0.0000000  0.0000000 )
                  (  0.0000000 -1.0000000  0.0000000 )
                  (  0.0000000  0.0000000 -1.0000000 )


      isym =  8     inv. 180 deg rotation - cart. axis [1,0,0]   

 cryst.   s( 8) = (    -1          0          0      )
                  (     1          1          0      )
                  (     0          0          1      )

 cart.    s( 8) = ( -1.0000000  0.0000000  0.0000000 )
                  (  0.0000000  1.0000000  0.0000000 )
                  (  0.0000000  0.0000000  1.0000000 )


      isym =  9     inv. 120 deg rotation - cryst. axis [0,0,1]  

 cryst.   s( 9) = (     0         -1          0      )
                  (     1          1          0      )
                  (     0          0         -1      )

 cart.    s( 9) = (  0.5000000  0.8660254  0.0000000 )
                  ( -0.8660254  0.5000000  0.0000000 )
                  (  0.0000000  0.0000000 -1.0000000 )


      isym = 10     inv. 120 deg rotation - cryst. axis [0,0,-1] 

 cryst.   s(10) = (     1          1          0      )
                  (    -1          0          0      )
                  (     0          0         -1      )

 cart.    s(10) = (  0.5000000 -0.8660254  0.0000000 )
                  (  0.8660254  0.5000000  0.0000000 )
                  (  0.0000000  0.0000000 -1.0000000 )


      isym = 11     inv. 180 deg rotation - cryst. axis [0,1,0]  

 cryst.   s(11) = (     1          1          0      )
                  (     0         -1          0      )
                  (     0          0          1      )

 cart.    s(11) = (  0.5000000  0.8660254  0.0000000 )
                  (  0.8660254 -0.5000000  0.0000000 )
                  (  0.0000000  0.0000000  1.0000000 )


      isym = 12     inv. 180 deg rotation - cryst. axis [1,1,0]  

 cryst.   s(12) = (     0         -1          0      )
                  (    -1          0          0      )
                  (     0          0          1      )

 cart.    s(12) = (  0.5000000 -0.8660254  0.0000000 )
                  ( -0.8660254 -0.5000000  0.0000000 )
                  (  0.0000000  0.0000000  1.0000000 )


     double point group D_3d (-3m) 
     there are 12 classes and  6 irreducible representations
     the character table:

       E     -E    2C3   -2C3  3C2'  -3C2' i     -i    2S6   -2S6  3s_v  -3s_v
                                                                              
G_4+   2.00 -2.00  1.00 -1.00  0.00  0.00  2.00 -2.00  1.00 -1.00  0.00  0.00
G_5+   1.00 -1.00 -1.00  1.00  0.00  0.00  1.00 -1.00 -1.00  1.00  0.00  0.00
G_6+   1.00 -1.00 -1.00  1.00  0.00  0.00  1.00 -1.00 -1.00  1.00  0.00  0.00
G_4-   2.00 -2.00  1.00 -1.00  0.00  0.00 -2.00  2.00 -1.00  1.00  0.00  0.00
G_5-   1.00 -1.00 -1.00  1.00  0.00  0.00 -1.00  1.00  1.00 -1.00  0.00  0.00
G_6-   1.00 -1.00 -1.00  1.00  0.00  0.00 -1.00  1.00  1.00 -1.00  0.00  0.00

     imaginary part

       E     -E    2C3   -2C3  3C2'  -3C2' i     -i    2S6   -2S6  3s_v  -3s_v
                                                                              
G_4+   0.00  0.00  0.00  0.00  0.00  0.00  0.00  0.00  0.00  0.00  0.00  0.00
G_5+   0.00  0.00  0.00  0.00  1.00 -1.00  0.00  0.00  0.00  0.00  1.00 -1.00
G_6+   0.00  0.00  0.00  0.00 -1.00  1.00  0.00  0.00  0.00  0.00 -1.00  1.00
G_4-   0.00  0.00  0.00  0.00  0.00  0.00  0.00  0.00  0.00  0.00  0.00  0.00
G_5-   0.00  0.00  0.00  0.00  1.00 -1.00  0.00  0.00  0.00  0.00 -1.00  1.00
G_6-   0.00  0.00  0.00  0.00 -1.00  1.00  0.00  0.00  0.00  0.00  1.00 -1.00

     the symmetry operations in each class and the name of the first element:

     E             1
          identity                                               
     -E           -1
          identity E                                             
     2C3           3    4
          120 deg rotation - cryst. axis [0,0,1]                 
     -2C3         -3   -4
          120 deg rotation - cryst. axis [0,0,1] E               
     3C2'          2   -5   -6
          180 deg rotation - cart. axis [1,0,0]                  
     3C2'          5    6   -2
          180 deg rotation - cryst. axis [0,1,0]                 
     i             7
          inversion                                              
     -i           -7
          inversion E                                            
     2S6           9   10
          inv. 120 deg rotation - cryst. axis [0,0,1]            
     -2S6         -9  -10
          inv. 120 deg rotation - cryst. axis [0,0,1] E          
     3s_v          8  -11  -12
          inv. 180 deg rotation - cart. axis [1,0,0]             
     3s_v         11   12   -8
          inv. 180 deg rotation - cryst. axis [0,1,0]            

   Cartesian axes

     site n.     atom                  positions (alat units)
         1           Ge  tau(   1) = (   0.0000000   0.5773503   0.0839713  )
         2           Ge  tau(   2) = (   0.5000000   0.2886751  -0.0839713  )

   Crystallographic axes

     site n.     atom                  positions (cryst. coord.)
         1           Ge  tau(   1) = (  0.3333334  0.6666667  0.0104964  )
         2           Ge  tau(   2) = (  0.6666666  0.3333333 -0.0104964  )

     number of k points=    19
                       cart. coord. in units 2pi/alat
        k(    1) = (   0.0000000   0.0000000   0.0000000), wk =   0.0069444
        k(    2) = (   0.0000000   0.0962250   0.0000000), wk =   0.0416667
        k(    3) = (   0.0000000   0.1924501   0.0000000), wk =   0.0416667
        k(    4) = (   0.0000000   0.2886751   0.0000000), wk =   0.0416667
        k(    5) = (   0.0000000   0.3849002   0.0000000), wk =   0.0416667
        k(    6) = (   0.0000000   0.4811252   0.0000000), wk =   0.0416667
        k(    7) = (   0.0000000  -0.5773503   0.0000000), wk =   0.0208333
        k(    8) = (   0.0833333   0.1443376   0.0000000), wk =   0.0416667
        k(    9) = (   0.0833333   0.2405626   0.0000000), wk =   0.0833333
        k(   10) = (   0.0833333   0.3367877   0.0000000), wk =   0.0833333
        k(   11) = (   0.0833333   0.4330127   0.0000000), wk =   0.0833333
        k(   12) = (   0.0833333   0.5292377   0.0000000), wk =   0.0833333
        k(   13) = (   0.1666667   0.2886751   0.0000000), wk =   0.0416667
        k(   14) = (   0.1666667   0.3849002   0.0000000), wk =   0.0833333
        k(   15) = (   0.1666667   0.4811252   0.0000000), wk =   0.0833333
        k(   16) = (   0.1666667   0.5773503   0.0000000), wk =   0.0416667
        k(   17) = (   0.2500000   0.4330127   0.0000000), wk =   0.0416667
        k(   18) = (   0.2500000   0.5292377   0.0000000), wk =   0.0833333
        k(   19) = (   0.3333333   0.5773503   0.0000000), wk =   0.0138889

                       cryst. coord.
        k(    1) = (   0.0000000   0.0000000   0.0000000), wk =   0.0069444
        k(    2) = (   0.0000000   0.0833333   0.0000000), wk =   0.0416667
        k(    3) = (   0.0000000   0.1666667   0.0000000), wk =   0.0416667
        k(    4) = (   0.0000000   0.2500000   0.0000000), wk =   0.0416667
        k(    5) = (   0.0000000   0.3333333   0.0000000), wk =   0.0416667
        k(    6) = (   0.0000000   0.4166667   0.0000000), wk =   0.0416667
        k(    7) = (   0.0000000  -0.5000000   0.0000000), wk =   0.0208333
        k(    8) = (   0.0833333   0.0833333   0.0000000), wk =   0.0416667
        k(    9) = (   0.0833333   0.1666667   0.0000000), wk =   0.0833333
        k(   10) = (   0.0833333   0.2500000   0.0000000), wk =   0.0833333
        k(   11) = (   0.0833333   0.3333333   0.0000000), wk =   0.0833333
        k(   12) = (   0.0833333   0.4166667   0.0000000), wk =   0.0833333
        k(   13) = (   0.1666667   0.1666667   0.0000000), wk =   0.0416667
        k(   14) = (   0.1666667   0.2500000   0.0000000), wk =   0.0833333
        k(   15) = (   0.1666667   0.3333333   0.0000000), wk =   0.0833333
        k(   16) = (   0.1666667   0.4166667   0.0000000), wk =   0.0416667
        k(   17) = (   0.2500000   0.2500000   0.0000000), wk =   0.0416667
        k(   18) = (   0.2500000   0.3333333   0.0000000), wk =   0.0833333
        k(   19) = (   0.3333333   0.3333333   0.0000000), wk =   0.0138889

     Dense  grid:   356277 G-vectors     FFT dimensions: (  48,  48, 375)

     Dynamical RAM for                 wfc:      10.89 MB

     Dynamical RAM for     wfc (w. buffer):     217.75 MB

     Dynamical RAM for           str. fact:       1.36 MB

     Dynamical RAM for           local pot:       0.00 MB

     Dynamical RAM for          nlocal pot:      11.57 MB

     Dynamical RAM for                qrad:       3.99 MB

     Dynamical RAM for          rho,v,vnew:      36.14 MB

     Dynamical RAM for               rhoin:      12.05 MB

     Dynamical RAM for            rho*nmix:      86.99 MB

     Dynamical RAM for           G-vectors:       5.78 MB

     Dynamical RAM for          h,s,v(r/c):       0.19 MB

     Dynamical RAM for          <psi|beta>:       0.07 MB

     Dynamical RAM for                 psi:      21.78 MB

     Dynamical RAM for                hpsi:      21.78 MB

     Dynamical RAM for                spsi:      21.78 MB

     Dynamical RAM for      wfcinit/wfcrot:      18.40 MB

     Dynamical RAM for           addusdens:     831.81 MB

     Dynamical RAM for          addusforce:     835.23 MB

     Dynamical RAM for         addusstress:     853.55 MB

     Estimated static dynamical RAM per process >     391.55 MB

     Estimated max dynamical RAM per process >       1.22 GB

     Estimated total dynamical RAM >       4.86 GB

     Check: negative core charge=   -0.000003

     Initial potential from superposition of free atoms

     starting charge   27.99860, renormalised to   28.00000

     negative rho (up, down):  1.571E-04 0.000E+00
     Starting wfcs are   36 randomized atomic wfcs
     Checking if some PAW data can be deallocated... 

     total cpu time spent up to now is       45.8 secs

     Self-consistent Calculation

     iteration #  1     ecut=    90.00 Ry     beta= 0.70
     Davidson diagonalization with overlap
     ethr =  1.00E-02,  avg # of iterations =  2.9

     Threshold (ethr) on eigenvalues was too large:
     Diagonalizing with lowered threshold

     Davidson diagonalization with overlap
     ethr =  1.03E-04,  avg # of iterations =  3.4

     negative rho (up, down):  1.532E-04 0.000E+00

     total cpu time spent up to now is      306.4 secs

     total energy              =    -631.29931298 Ry
     estimated scf accuracy    <       0.03343858 Ry

     iteration #  2     ecut=    90.00 Ry     beta= 0.70
     Davidson diagonalization with overlap
     ethr =  1.19E-04,  avg # of iterations =  2.6

     negative rho (up, down):  1.535E-04 0.000E+00

     total cpu time spent up to now is      429.6 secs

     total energy              =    -631.30203761 Ry
     estimated scf accuracy    <       0.00121621 Ry

     iteration #  3     ecut=    90.00 Ry     beta= 0.70
     Davidson diagonalization with overlap
     ethr =  4.34E-06,  avg # of iterations =  4.6

     negative rho (up, down):  1.526E-04 0.000E+00

     total cpu time spent up to now is      549.3 secs

     total energy              =    -631.30210717 Ry
     estimated scf accuracy    <       0.00005574 Ry

     iteration #  4     ecut=    90.00 Ry     beta= 0.70
     Davidson diagonalization with overlap
     ethr =  1.99E-07,  avg # of iterations =  2.1

     negative rho (up, down):  1.523E-04 0.000E+00

     total cpu time spent up to now is      698.4 secs

     total energy              =    -631.30211889 Ry
     estimated scf accuracy    <       0.00000467 Ry

     iteration #  5     ecut=    90.00 Ry     beta= 0.70
     Davidson diagonalization with overlap
     ethr =  1.67E-08,  avg # of iterations =  2.2

     negative rho (up, down):  1.519E-04 0.000E+00

     total cpu time spent up to now is      850.4 secs

     End of self-consistent calculation

          k = 0.0000 0.0000 0.0000 ( 44693 PWs)   bands (ev):

   -28.0112 -28.0112 -27.9978 -27.9978 -27.9875 -27.9875 -27.9227 -27.9227
   -27.4872 -27.4872 -27.4208 -27.4208 -27.3665 -27.3665 -27.3609 -27.3609
   -27.3264 -27.3264 -27.2629 -27.2629 -14.4787 -14.4787  -6.7366  -6.7366
    -3.8084  -3.8084  -3.6116  -3.6116  -2.7607  -2.7607  -0.9209  -0.9209

     occupation numbers 
     1.0000   1.0000   1.0000   1.0000   1.0000   1.0000   1.0000   1.0000
     1.0000   1.0000   1.0000   1.0000   1.0000   1.0000   1.0000   1.0000
     1.0000   1.0000   1.0000   1.0000   1.0000   1.0000   1.0000   1.0000
     1.0000   1.0000   1.0000   1.0000   0.0000   0.0000   0.0000   0.0000

          k = 0.0000 0.0962 0.0000 ( 44700 PWs)   bands (ev):

   -28.0114 -28.0114 -28.0000 -28.0000 -27.9849 -27.9849 -27.9237 -27.9237
   -27.4850 -27.4850 -27.4212 -27.4212 -27.3689 -27.3689 -27.3658 -27.3658
   -27.3196 -27.3196 -27.2626 -27.2626 -14.4032 -14.4032  -6.7983  -6.7983
    -4.5774  -4.5774  -3.8614  -3.8614  -1.8899  -1.8899  -0.8836  -0.8836

     occupation numbers 
     1.0000   1.0000   1.0000   1.0000   1.0000   1.0000   1.0000   1.0000
     1.0000   1.0000   1.0000   1.0000   1.0000   1.0000   1.0000   1.0000
     1.0000   1.0000   1.0000   1.0000   1.0000   1.0000   1.0000   1.0000
     1.0000   1.0000   1.0000   1.0000   0.0000   0.0000   0.0000   0.0000

          k = 0.0000 0.1925 0.0000 ( 44696 PWs)   bands (ev):

   -28.0121 -28.0121 -28.0034 -28.0034 -27.9802 -27.9802 -27.9263 -27.9263
   -27.4789 -27.4789 -27.4220 -27.4220 -27.3839 -27.3839 -27.3644 -27.3644
   -27.3075 -27.3075 -27.2617 -27.2617 -14.1785 -14.1785  -7.2153  -7.2153
    -5.3037  -5.3037  -4.2264  -4.2264  -1.2792  -1.2792  -0.8181  -0.8181

     occupation numbers 
     1.0000   1.0000   1.0000   1.0000   1.0000   1.0000   1.0000   1.0000
     1.0000   1.0000   1.0000   1.0000   1.0000   1.0000   1.0000   1.0000
     1.0000   1.0000   1.0000   1.0000   1.0000   1.0000   1.0000   1.0000
     1.0000   1.0000   1.0000   1.0000   0.0000   0.0000   0.0000   0.0000

          k = 0.0000 0.2887 0.0000 ( 44696 PWs)   bands (ev):

   -28.0131 -28.0131 -28.0060 -28.0060 -27.9755 -27.9755 -27.9303 -27.9303
   -27.4708 -27.4708 -27.4225 -27.4225 -27.3991 -27.3991 -27.3627 -27.3627
   -27.2962 -27.2962 -27.2607 -27.2607 -13.8112 -13.8112  -8.1637  -8.1637
    -5.3297  -5.3297  -4.6211  -4.6211  -1.4784  -1.4784  -0.8449  -0.8449

     occupation numbers 
     1.0000   1.0000   1.0000   1.0000   1.0000   1.0000   1.0000   1.0000
     1.0000   1.0000   1.0000   1.0000   1.0000   1.0000   1.0000   1.0000
     1.0000   1.0000   1.0000   1.0000   1.0000   1.0000   1.0000   1.0000
     1.0000   1.0000   1.0000   1.0000   0.0000   0.0000   0.0000   0.0000

          k = 0.0000 0.3849 0.0000 ( 44632 PWs)   bands (ev):

   -28.0142 -28.0142 -28.0073 -28.0073 -27.9716 -27.9716 -27.9347 -27.9347
   -27.4631 -27.4631 -27.4218 -27.4218 -27.4118 -27.4118 -27.3617 -27.3617
   -27.2871 -27.2871 -27.2602 -27.2602 -13.3202 -13.3202  -9.2406  -9.2406
    -5.0184  -5.0184  -4.9366  -4.9366  -1.8823  -1.8823  -1.1272  -1.1272

     occupation numbers 
     1.0000   1.0000   1.0000   1.0000   1.0000   1.0000   1.0000   1.0000
     1.0000   1.0000   1.0000   1.0000   1.0000   1.0000   1.0000   1.0000
     1.0000   1.0000   1.0000   1.0000   1.0000   1.0000   1.0000   1.0000
     1.0000   1.0000   1.0000   1.0000   0.0000   0.0000   0.0000   0.0000

          k = 0.0000 0.4811 0.0000 ( 44544 PWs)   bands (ev):

   -28.0150 -28.0150 -28.0076 -28.0076 -27.9687 -27.9687 -27.9383 -27.9383
   -27.4579 -27.4579 -27.4229 -27.4229 -27.4176 -27.4176 -27.3616 -27.3616
   -27.2808 -27.2808 -27.2603 -27.2603 -12.7728 -12.7728 -10.1755 -10.1755
    -5.1595  -5.1595  -4.5953  -4.5953  -2.2997  -2.2997  -1.4722  -1.4722

     occupation numbers 
     1.0000   1.0000   1.0000   1.0000   1.0000   1.0000   1.0000   1.0000
     1.0000   1.0000   1.0000   1.0000   1.0000   1.0000   1.0000   1.0000
     1.0000   1.0000   1.0000   1.0000   1.0000   1.0000   1.0000   1.0000
     1.0000   1.0000   1.0000   1.0000   0.0000   0.0000   0.0000   0.0000

          k = 0.0000-0.5774 0.0000 ( 44492 PWs)   bands (ev):

   -28.0153 -28.0153 -28.0077 -28.0077 -27.9676 -27.9676 -27.9398 -27.9398
   -27.4560 -27.4560 -27.4255 -27.4255 -27.4171 -27.4171 -27.3618 -27.3618
   -27.2785 -27.2785 -27.2605 -27.2605 -12.4568 -12.4568 -10.6247 -10.6247
    -5.2308  -5.2308  -4.3763  -4.3763  -2.5264  -2.5264  -1.6051  -1.6051

     occupation numbers 
     1.0000   1.0000   1.0000   1.0000   1.0000   1.0000   1.0000   1.0000
     1.0000   1.0000   1.0000   1.0000   1.0000   1.0000   1.0000   1.0000
     1.0000   1.0000   1.0000   1.0000   1.0000   1.0000   1.0000   1.0000
     1.0000   1.0000   1.0000   1.0000   0.0000   0.0000   0.0000   0.0000

          k = 0.0833 0.1443 0.0000 ( 44651 PWs)   bands (ev):

   -28.0119 -28.0119 -28.0025 -28.0025 -27.9816 -27.9816 -27.9255 -27.9255
   -27.4808 -27.4808 -27.4218 -27.4218 -27.3796 -27.3796 -27.3648 -27.3648
   -27.3109 -27.3109 -27.2619 -27.2619 -14.2531 -14.2531  -7.0389  -7.0389
    -5.1604  -5.1604  -4.1933  -4.1933  -1.1640  -1.1640  -0.8323  -0.8323

     occupation numbers 
     1.0000   1.0000   1.0000   1.0000   1.0000   1.0000   1.0000   1.0000
     1.0000   1.0000   1.0000   1.0000   1.0000   1.0000   1.0000   1.0000
     1.0000   1.0000   1.0000   1.0000   1.0000   1.0000   1.0000   1.0000
     1.0000   1.0000   1.0000   1.0000   0.0000   0.0000   0.0000   0.0000

          k = 0.0833 0.2406 0.0000 ( 44662 PWs)   bands (ev):

   -28.0128 -28.0128 -28.0051 -28.0051 -27.9774 -27.9774 -27.9286 -27.9286
   -27.4738 -27.4738 -27.4226 -27.4226 -27.3935 -27.3935 -27.3632 -27.3632
   -27.3010 -27.3010 -27.2603 -27.2603 -13.9565 -13.9565  -7.7656  -7.7656
    -5.3513  -5.3513  -4.6775  -4.6775  -0.9641  -0.9641  -0.7026  -0.7026

     occupation numbers 
     1.0000   1.0000   1.0000   1.0000   1.0000   1.0000   1.0000   1.0000
     1.0000   1.0000   1.0000   1.0000   1.0000   1.0000   1.0000   1.0000
     1.0000   1.0000   1.0000   1.0000   1.0000   1.0000   1.0000   1.0000
     1.0000   1.0000   1.0000   1.0000   0.0000   0.0000   0.0000   0.0000

          k = 0.0833 0.3368 0.0000 ( 44655 PWs)   bands (ev):

   -28.0140 -28.0140 -28.0066 -28.0066 -27.9737 -27.9737 -27.9323 -27.9323
   -27.4661 -27.4661 -27.4226 -27.4226 -27.4064 -27.4064 -27.3616 -27.3616
   -27.2936 -27.2936 -27.2579 -27.2579 -13.5242 -13.5242  -8.7803  -8.7803
    -5.2311  -5.2311  -5.0048  -5.0048  -1.3994  -1.3994  -0.7462  -0.7462

     occupation numbers 
     1.0000   1.0000   1.0000   1.0000   1.0000   1.0000   1.0000   1.0000
     1.0000   1.0000   1.0000   1.0000   1.0000   1.0000   1.0000   1.0000
     1.0000   1.0000   1.0000   1.0000   1.0000   1.0000   1.0000   1.0000
     1.0000   1.0000   1.0000   1.0000   0.0000   0.0000   0.0000   0.0000

          k = 0.0833 0.4330 0.0000 ( 44615 PWs)   bands (ev):

   -28.0151 -28.0151 -28.0070 -28.0070 -27.9711 -27.9711 -27.9357 -27.9357
   -27.4601 -27.4601 -27.4222 -27.4222 -27.4150 -27.4150 -27.3608 -27.3608
   -27.2894 -27.2894 -27.2551 -27.2551 -12.9895 -12.9895  -9.7804  -9.7804
    -5.4696  -5.4696  -4.6640  -4.6640  -1.9729  -1.9729  -0.9389  -0.9389

     occupation numbers 
     1.0000   1.0000   1.0000   1.0000   1.0000   1.0000   1.0000   1.0000
     1.0000   1.0000   1.0000   1.0000   1.0000   1.0000   1.0000   1.0000
     1.0000   1.0000   1.0000   1.0000   1.0000   1.0000   1.0000   1.0000
     1.0000   1.0000   1.0000   1.0000   0.0000   0.0000   0.0000   0.0000

          k = 0.0833 0.5292 0.0000 ( 44515 PWs)   bands (ev):

   -28.0157 -28.0157 -28.0070 -28.0070 -27.9698 -27.9698 -27.9377 -27.9377
   -27.4571 -27.4571 -27.4244 -27.4244 -27.4164 -27.4164 -27.3607 -27.3607
   -27.2877 -27.2877 -27.2533 -27.2533 -12.4893 -12.4893 -10.5289 -10.5289
    -5.6259  -5.6259  -4.2731  -4.2731  -2.4640  -2.4640  -1.0846  -1.0846

     occupation numbers 
     1.0000   1.0000   1.0000   1.0000   1.0000   1.0000   1.0000   1.0000
     1.0000   1.0000   1.0000   1.0000   1.0000   1.0000   1.0000   1.0000
     1.0000   1.0000   1.0000   1.0000   1.0000   1.0000   1.0000   1.0000
     1.0000   1.0000   1.0000   1.0000   0.0000   0.0000   0.0000   0.0000

          k = 0.1667 0.2887 0.0000 ( 44677 PWs)   bands (ev):

   -28.0140 -28.0140 -28.0061 -28.0061 -27.9748 -27.9748 -27.9312 -27.9312
   -27.4672 -27.4672 -27.4230 -27.4230 -27.4038 -27.4038 -27.3614 -27.3614
   -27.2973 -27.2973 -27.2563 -27.2563 -13.5930 -13.5930  -8.5805  -8.5805
    -5.3390  -5.3390  -5.1214  -5.1214  -1.1510  -1.1510   0.0804   0.0804

     occupation numbers 
     1.0000   1.0000   1.0000   1.0000   1.0000   1.0000   1.0000   1.0000
     1.0000   1.0000   1.0000   1.0000   1.0000   1.0000   1.0000   1.0000
     1.0000   1.0000   1.0000   1.0000   1.0000   1.0000   1.0000   1.0000
     1.0000   1.0000   1.0000   1.0000   0.0000   0.0000   0.0000   0.0000

          k = 0.1667 0.3849 0.0000 ( 44594 PWs)   bands (ev):

   -28.0154 -28.0154 -28.0062 -28.0062 -27.9736 -27.9736 -27.9332 -27.9332
   -27.4618 -27.4618 -27.4229 -27.4229 -27.4114 -27.4114 -27.3594 -27.3594
   -27.2980 -27.2980 -27.2502 -27.2502 -13.1048 -13.1048  -9.4872  -9.4872
    -5.8685  -5.8685  -4.7225  -4.7225  -1.6747  -1.6747   0.1958   0.1958

     occupation numbers 
     1.0000   1.0000   1.0000   1.0000   1.0000   1.0000   1.0000   1.0000
     1.0000   1.0000   1.0000   1.0000   1.0000   1.0000   1.0000   1.0000
     1.0000   1.0000   1.0000   1.0000   1.0000   1.0000   1.0000   1.0000
     1.0000   1.0000   1.0000   1.0000   0.0000   0.0000   0.0000   0.0000

          k = 0.1667 0.4811 0.0000 ( 44542 PWs)   bands (ev):

   -28.0165 -28.0165 -28.0058 -28.0058 -27.9736 -27.9736 -27.9342 -27.9342
   -27.4590 -27.4590 -27.4232 -27.4232 -27.4143 -27.4143 -27.3580 -27.3580
   -27.3004 -27.3004 -27.2450 -27.2450 -12.5484 -12.5484 -10.3298 -10.3298
    -6.1976  -6.1976  -4.2355  -4.2355  -2.2898  -2.2898   0.1235   0.1235

     occupation numbers 
     1.0000   1.0000   1.0000   1.0000   1.0000   1.0000   1.0000   1.0000
     1.0000   1.0000   1.0000   1.0000   1.0000   1.0000   1.0000   1.0000
     1.0000   1.0000   1.0000   1.0000   1.0000   1.0000   1.0000   1.0000
     1.0000   1.0000   1.0000   1.0000   0.0000   0.0000   0.0000   0.0000

          k = 0.1667 0.5774 0.0000 ( 44532 PWs)   bands (ev):

   -28.0168 -28.0168 -28.0056 -28.0056 -27.9737 -27.9737 -27.9345 -27.9345
   -27.4583 -27.4583 -27.4237 -27.4237 -27.4143 -27.4143 -27.3575 -27.3575
   -27.3016 -27.3016 -27.2431 -27.2431 -12.2064 -12.2064 -10.7729 -10.7729
    -6.3075  -6.3075  -3.9399  -3.9399  -2.6369  -2.6369   0.0884   0.0884

     occupation numbers 
     1.0000   1.0000   1.0000   1.0000   1.0000   1.0000   1.0000   1.0000
     1.0000   1.0000   1.0000   1.0000   1.0000   1.0000   1.0000   1.0000
     1.0000   1.0000   1.0000   1.0000   1.0000   1.0000   1.0000   1.0000
     1.0000   1.0000   1.0000   1.0000   0.0000   0.0000   0.0000   0.0000

          k = 0.2500 0.4330 0.0000 ( 44584 PWs)   bands (ev):

   -28.0168 -28.0168 -28.0052 -28.0052 -27.9753 -27.9753 -27.9326 -27.9326
   -27.4598 -27.4598 -27.4229 -27.4229 -27.4130 -27.4130 -27.3563 -27.3563
   -27.3060 -27.3060 -27.2420 -27.2420 -12.5756 -12.5756 -10.2242 -10.2242
    -6.4428  -6.4428  -4.2409  -4.2409  -2.1921  -2.1921   1.2909   1.2909

     occupation numbers 
     1.0000   1.0000   1.0000   1.0000   1.0000   1.0000   1.0000   1.0000
     1.0000   1.0000   1.0000   1.0000   1.0000   1.0000   1.0000   1.0000
     1.0000   1.0000   1.0000   1.0000   1.0000   1.0000   1.0000   1.0000
     1.0000   1.0000   1.0000   1.0000   0.0000   0.0000   0.0000   0.0000

          k = 0.2500 0.5292 0.0000 ( 44526 PWs)   bands (ev):

   -28.0176 -28.0176 -28.0043 -28.0043 -27.9769 -27.9769 -27.9319 -27.9319
   -27.4596 -27.4596 -27.4228 -27.4228 -27.4125 -27.4125 -27.3533 -27.3533
   -27.3125 -27.3125 -27.2371 -27.2371 -12.0247 -12.0247 -10.8861 -10.8861
    -6.7464  -6.7464  -3.7384  -3.7384  -2.7260  -2.7260   1.3558   1.3558

     occupation numbers 
     1.0000   1.0000   1.0000   1.0000   1.0000   1.0000   1.0000   1.0000
     1.0000   1.0000   1.0000   1.0000   1.0000   1.0000   1.0000   1.0000
     1.0000   1.0000   1.0000   1.0000   1.0000   1.0000   1.0000   1.0000
     1.0000   1.0000   1.0000   1.0000   0.0000   0.0000   0.0000   0.0000

          k = 0.3333 0.5774 0.0000 ( 44424 PWs)   bands (ev):

   -28.0180 -28.0180 -28.0037 -28.0037 -27.9784 -27.9784 -27.9308 -27.9308
   -27.4601 -27.4601 -27.4225 -27.4225 -27.4116 -27.4116 -27.3502 -27.3502
   -27.3184 -27.3184 -27.2342 -27.2342 -11.4681 -11.4681 -11.4462 -11.4462
    -6.9458  -6.9458  -3.2313  -3.2313  -3.2071  -3.2071   1.1879   1.1880

     occupation numbers 
     1.0000   1.0000   1.0000   1.0000   1.0000   1.0000   1.0000   1.0000
     1.0000   1.0000   1.0000   1.0000   1.0000   1.0000   1.0000   1.0000
     1.0000   1.0000   1.0000   1.0000   1.0000   1.0000   1.0000   1.0000
     1.0000   1.0000   1.0000   1.0000   0.0000   0.0000   0.0000   0.0000

     highest occupied, lowest unoccupied level (ev):    -3.2313   -3.2071

!    total energy              =    -631.30211975 Ry

     total all-electron energy =     -8396.328757 Ry
     estimated scf accuracy    <       0.00000033 Ry

     The total energy is the sum of the following terms:
     one-electron contribution =   -2021.45662597 Ry
     hartree contribution      =    1019.19427703 Ry
     xc contribution           =    -113.49666743 Ry
     ewald contribution        =     682.36823740 Ry
     one-center paw contrib.   =    -197.91134077 Ry
      -> PAW hartree energy AE =     166.57589514 Ry
      -> PAW hartree energy PS =    -162.82696110 Ry
      -> PAW xc energy AE      =    -159.11456807 Ry
      -> PAW xc energy PS      =      56.40996364 Ry
      -> total E_H with PAW    =    1022.94321107 Ry
      -> total E_XC with PAW   =    -216.20127187 Ry

     convergence has been achieved in   5 iterations

     negative rho (up, down):  1.519E-04 0.000E+00

     Forces acting on atoms (cartesian axes, Ry/au):

     atom    1 type  1   force =     0.00000000    0.00000000   -0.00084094
     atom    2 type  1   force =     0.00000000    0.00000000    0.00084094
     The non-local contrib.  to forces
     atom    1 type  1   force =     0.00000000    0.00000000   -0.30218872
     atom    2 type  1   force =     0.00000000    0.00000000    0.30218872
     The ionic contribution  to forces
     atom    1 type  1   force =    -0.00000000   -0.00000391   21.91156006
     atom    2 type  1   force =     0.00000000    0.00000391  -21.91156006
     The local contribution  to forces
     atom    1 type  1   force =     0.00000000   -0.00004520  -21.61412660
     atom    2 type  1   force =    -0.00000000    0.00005075   21.61412660
     The core correction contribution to forces
     atom    1 type  1   force =    -0.00000000   -0.00000614    0.00478557
     atom    2 type  1   force =    -0.00000000    0.00000689   -0.00478557
     The Hubbard contrib.    to forces
     atom    1 type  1   force =     0.00000000    0.00000000    0.00000000
     atom    2 type  1   force =     0.00000000    0.00000000    0.00000000
     The SCF correction term to forces
     atom    1 type  1   force =     0.00000000    0.00000009   -0.00087125
     atom    2 type  1   force =    -0.00000000   -0.00000010    0.00087125

     Total force =     0.001189     Total SCF correction =     0.001232
     SCF correction compared to forces is large: reduce conv_thr to get better values


     Computing stress (Cartesian axis) and pressure


     negative rho (up, down):  1.519E-04 0.000E+00
          total   stress  (Ry/bohr**3)                   (kbar)     P=        0.51
   0.00000344  -0.00000000   0.00000000            0.51       -0.00        0.00
  -0.00000000   0.00000344   0.00000000           -0.00        0.51        0.00
   0.00000000   0.00000000   0.00000350            0.00        0.00        0.51

     kinetic stress (kbar)   1030.51     -0.00      0.00
                               -0.00   1030.51     -0.00
                                0.00     -0.00   1048.48

     local   stress (kbar) -82706.14     -0.00      0.00
                               -0.00 -82706.14      0.00
                                0.00      0.00  84569.26

     nonloc. stress (kbar)    -94.51      0.00      0.00
                                0.00    -94.51     -0.00
                                0.00     -0.00   -111.10

     hartree stress (kbar)  43610.84     -0.00     -0.00
                               -0.00  43610.84      0.00
                               -0.00      0.00 -38751.75

     exc-cor stress (kbar)   1855.49      0.00     -0.00
                                0.00   1855.49     -0.00
                               -0.00     -0.00   1852.16

     corecor stress (kbar)  -2816.74     -0.00      0.00
                               -0.00  -2816.74      0.00
                                0.00      0.00  -2815.87

     ewald   stress (kbar)  39121.06     -0.00      0.00
                               -0.00  39121.06     -0.00
                                0.00     -0.00 -45790.66

     hubbard stress (kbar)      0.00      0.00      0.00
                                0.00      0.00      0.00
                                0.00      0.00      0.00

     DFT-D   stress (kbar)      0.00      0.00      0.00
                                0.00      0.00      0.00
                                0.00      0.00      0.00

     XDM     stress (kbar)      0.00      0.00      0.00
                                0.00      0.00      0.00
                                0.00      0.00      0.00

     dft-nl  stress (kbar)      0.00      0.00      0.00
                                0.00      0.00      0.00
                                0.00      0.00      0.00

     TS-vdW  stress (kbar)      0.00      0.00      0.00
                                0.00      0.00      0.00
                                0.00      0.00      0.00



     Writing output data file ./Germanene.save/

     init_run     :     43.94s CPU     44.62s WALL (       1 calls)
     electrons    :    789.34s CPU    804.63s WALL (       1 calls)
     forces       :     16.62s CPU     17.08s WALL (       1 calls)
     stress       :     36.21s CPU     37.64s WALL (       1 calls)

     Called by init_run:
     wfcinit      :     41.54s CPU     41.98s WALL (       1 calls)
     wfcinit:atom :      0.17s CPU      0.18s WALL (      19 calls)
     wfcinit:wfcr :     40.29s CPU     40.71s WALL (      19 calls)
     potinit      :      0.53s CPU      0.56s WALL (       1 calls)
     hinit0       :      0.38s CPU      0.39s WALL (       1 calls)

     Called by electrons:
     c_bands      :    667.73s CPU    677.85s WALL (       6 calls)
     sum_band     :    109.13s CPU    112.54s WALL (       6 calls)
     v_of_rho     :      1.56s CPU      1.62s WALL (       6 calls)
     v_h          :      0.13s CPU      0.15s WALL (       6 calls)
     v_xc         :      1.85s CPU      1.92s WALL (       8 calls)
     newd         :     10.75s CPU     12.52s WALL (       6 calls)
     PAW_pot      :      0.99s CPU      1.00s WALL (       6 calls)
     mix_rho      :      0.74s CPU      0.82s WALL (       6 calls)

     Called by c_bands:
     init_us_2    :      1.78s CPU      1.81s WALL (     285 calls)
     cegterg      :    651.46s CPU    661.47s WALL (     114 calls)

     Called by sum_band:
     sum_band:wei :      0.00s CPU      0.00s WALL (       6 calls)
     sum_band:loo :     95.03s CPU     96.34s WALL (       6 calls)
     sum_band:buf :      0.63s CPU      0.63s WALL (     114 calls)
     sum_band:ini :      0.69s CPU      0.70s WALL (     114 calls)
     sum_band:cal :     17.22s CPU     17.27s WALL (     114 calls)
     sum_band:bec :      0.45s CPU      0.45s WALL (     114 calls)
     addusdens    :     13.40s CPU     15.47s WALL (       6 calls)
     addusd:skk   :      0.01s CPU      0.01s WALL (       6 calls)
     addusd:dgemm :      3.77s CPU      5.53s WALL (       6 calls)
     addusd:qvan2 :      9.42s CPU      9.49s WALL (       6 calls)

     Called by *egterg:
     cdiaghg      :      0.81s CPU      0.81s WALL (     433 calls)
     cegterg:over :     54.61s CPU     54.97s WALL (     338 calls)
     cegterg:upda :     28.80s CPU     28.99s WALL (     338 calls)
     cegterg:last :     70.37s CPU     70.77s WALL (     228 calls)
     h_psi        :    457.18s CPU    465.88s WALL (     471 calls)
     s_psi        :     49.68s CPU     49.98s WALL (     471 calls)
     g_psi        :      0.87s CPU      0.88s WALL (     338 calls)

     Called by h_psi:
     h_psi:calbec :     49.74s CPU     50.04s WALL (     471 calls)
     vloc_psi     :    356.22s CPU    363.99s WALL (     471 calls)
     add_vuspsi   :     49.79s CPU     50.10s WALL (     471 calls)

     General routines
     calbec       :     82.65s CPU     83.15s WALL (     680 calls)
     fft          :      1.88s CPU      1.97s WALL (     110 calls)
     ffts         :      0.38s CPU      0.39s WALL (      24 calls)
     fftw         :    371.31s CPU    379.32s WALL (   47096 calls)

     Parallel routines
     fft_scatt_xy :     54.56s CPU     55.76s WALL (   47230 calls)
     fft_scatt_yz :     49.83s CPU     51.79s WALL (   47230 calls)

     PAW routines
     PAW_pot      :      0.99s CPU      1.00s WALL (       6 calls)
     PAW_symme    :      0.01s CPU      0.01s WALL (      12 calls)

     PWSCF        :  14m47.68s CPU  15m 6.21s WALL


   This run was terminated on:  10:38:26   2Dec2021            

=------------------------------------------------------------------------------=
   JOB DONE.
=------------------------------------------------------------------------------=
